{"1": {
 "calculator": "gaussian",
 "calculator_parameters": {"nprocshared": 12, "initial_magmoms": [0.0, 0.0, 0.0, 0.0, 0.0, 0.0, 0.0, 0.0, 0.0, 0.0, 0.0, 0.0, 0.0], "method": "B3LYP", "basis": "6-31G"},
 "cell": [[0.0, 0.0, 0.0], [0.0, 0.0, 0.0], [0.0, 0.0, 0.0]],
 "ctime": 17.663033204365668,
 "dipole": [-2.2810597, 0.7926293, 0.1921472],
 "energy": -10383.3701603624,
 "forces": [[-0.027991293688300597, 0.023157259427325782, 0.002659446465785478], [0.026005681989668777, -0.0018289286602071251, -0.00183268247110473], [0.0387252902389688, 0.04798635309989727, -0.009379333615236579], [-0.005932101081624937, -0.03350775020163318, 0.011922360521129209], [0.03452282180599927, -0.003097459633262192, 0.008794201913814], [0.010552682342107166, 0.0047766986561689284, -0.0027187361091408025], [0.013106147927619164, -0.01680226326594873, -0.04986402987970617], [-0.0032583592811883063, -0.005418651741726488, -0.014627984003161938], [0.0009556276948094923, 0.006246187067413593, 0.05795395516264895], [0.0035164980579825192, 0.005502058334547248, 0.01853518692689793], [-0.029104735707010776, 0.007423803825852691, -0.006774600228835373], [-0.041293668223937034, -0.040113583206277593, -0.02352487578495563], [-0.019804592075093535, 0.005676276297849796, 0.008857091101865657]],
 "key_value_pairs": {"smiles": "C[C@@H]1COC(=O)O1", "flushing_point": 132.0, "density": 1.21, "boiling_point": 242.0, "molecular_weight": 102.09, "abb_name": "PC", "num": 1, "melting_point": -49.0},
 "mtime": 17.663033204365668,
 "numbers": [8, 6, 8, 8, 6, 6, 1, 1, 1, 6, 1, 1, 1],
 "pbc": [false, false, false],
 "positions": [[2.3580892943936873, -0.6980810110186443, -0.13909428921531147], [1.2427076618173742, -0.2343094566940941, -0.023428251115294577], [0.9360422447173123, 1.1276837800175399, -0.024738404721903196], [0.07369787186244535, -0.9720830442532877, 0.1322805177469353], [-0.5289248430229855, 1.3003007149346837, -0.05417507239036692], [-1.0634157103536357, -0.060388763777410315, 0.4344447193880575], [-0.7821088387762861, 2.1320354718176753, 0.6036327320110426], [-1.1848982211033576, -0.06743941350192642, 1.5229989381968954], [-0.8277743867725286, 1.5178357054909974, -1.0852526220315903], [-2.30617418536818, -0.5605237922629437, -0.26989451311211016], [-2.5710023050336703, -1.5598881343387854, 0.0847433672895896], [-3.143213291519436, 0.11746170664689116, -0.0659433340698506], [-2.140835298023189, -0.6071837589135448, -1.3509837917441294]],
 "unique_id": "fd3492b81f98f3bc8c85f1dda3aff4d4",
 "user": "a_ishi"},
"2": {
 "calculator": "nwchem",
 "calculator_parameters": {"mulliken": true, "basis": "6-31G", "xc": "B3LYP", "charge": 0, "iterations": 200, "mult": 1},
 "cell": [[0.0, 0.0, 0.0], [0.0, 0.0, 0.0], [0.0, 0.0, 0.0]],
 "ctime": 17.675901766017596,
 "dipole": [-1.2069960661573809, 0.41944279076363855, 0.10166182145305122],
 "energy": -10383.370260016482,
 "forces": [[-0.02812787069849291, 0.02298566398944485, 0.0025196812874335515], [0.025916721813602245, -0.0018511944152573032, -0.0017997723481668225], [0.03872081651913192, 0.04792536652832796, -0.00966734861301036], [-0.005964959782495755, -0.03352718774299338, 0.012289874034624875], [0.034504207017712514, -0.003136746092519319, 0.008690329338291228], [0.010541523753548533, 0.004885096373595662, -0.002622525421614513], [0.013266893309344007, -0.01666074973731573, -0.050136515413218626], [-0.0031881681596098, -0.0050907846419575836, -0.014449600852425061], [0.000874175140538171, 0.006119225983767197, 0.05784982547679072], [0.0035481226292431644, 0.00555358324577191, 0.018666210353844474], [-0.02884777963775964, 0.007456199728119695, -0.006684868721762483], [-0.04139476400783692, -0.040366322666027306, -0.023499884660349652], [-0.01979749582983505, 0.005707849447043352, 0.008947439673743634]],
 "key_value_pairs": {"smiles": "C[C@@H]1COC(=O)O1", "flushing_point": 132.0, "name": "PC", "density": 1.21, "boiling_point": 242.0, "molecular_weight": 102.09, "num": 1, "melting_point": -49.0},
 "magmom": 0.0,
 "mtime": 17.675901766017596,
 "numbers": [8, 6, 8, 8, 6, 6, 1, 1, 1, 6, 1, 1, 1],
 "pbc": [false, false, false],
 "positions": [[2.358093126548838, -0.6981033449303833, -0.1391106139298356], [1.2427185877694102, -0.23433435262920804, -0.02344718787768428], [0.9360463381600995, 1.1276741250386888, -0.024762363037627307], [0.073672396266023, -0.9720847739117375, 0.13235639831740587], [-0.5289074217896192, 1.3003282421206133, -0.05419334710454797], [-1.0634103921542335, -0.060339152019465714, 0.43444840520311556], [-0.7821039279340536, 2.132073439521838, 0.6036136719533911], [-1.184875700556606, -0.06740306941888491, 1.5230098061371788], [-0.8278048703589229, 1.5177895346530705, -1.0852689908768334], [-2.3061756544490266, -0.5605228999327181, -0.2698855532151962], [-2.5709705676067545, -1.5598978009636668, 0.08476088708636816], [-3.143250119151859, 0.11743535533005081, -0.0659413541769988], [-2.1408439591380493, -0.6071939015111673, -1.350990672615127]],
 "unique_id": "d725e8d969890ab642389e88c0f3d43b",
 "user": "a_ishi"},
"ids": [1, 2],
"nextid": 3}
